LAMMPS (3 Mar 2020)


 units real
 atom_style        full
 boundary f p p
 read_data eq_SYST.dat
  orthogonal box = (-50 -16.3128 -16.3128) to (44 16.3128 16.3128)
  4 by 1 by 2 MPI processor grid
  reading atoms ...
  24 atoms
  0 = max # of 1-2 neighbors
  0 = max # of 1-3 neighbors
  0 = max # of 1-4 neighbors
  1 = max # of special neighbors
  special bonds CPU = 0.001058 secs
  read_data CPU = 0.192168 secs

 pair_style	   reax/c NULL
 pair_coeff	* * ffield_IL.txt N C H B F
WARNING: Changed valency_val to valency_boc for B (../reaxc_ffield.cpp:315)

velocity all create 650 376847 mom yes rot yes dist gaussian
fix  1 all qeq/reax 1 0.0 8.0 1e-6 reax/c


#fix EFIX all nve
fix TFIX all nvt temp 300 300 $(100.0*dt)
fix TFIX all nvt temp 300 300 100
#egion myregion block INF 19 INF INF INF INF
#fix wall all wall/region myregion lj93 1.0 1.0 2.5




 #compute Tliq all temp/com


 #compute cc1 all chunk/atom molecule
 #compute myChunk all vcm/chunk cc1



 thermo_style custom step temp etotal
 thermo 100
 #thermo_modify lost ignore
 #thermo_modify lost/bond ignore
 timestep 0.1

dump myDump all custom 100 dump.prod id type xs ys zs q
#dump VDump liquid custom 100 dump.velocity01 id vx vy vz




#run 500000


#fix kick all efield 0.001 0.0 0.0
run 70000
Neighbor list info ...
  update every 1 steps, delay 10 steps, check yes
  max neighbors/atom: 2000, page size: 100000
  master list distance cutoff = 12
  ghost atom cutoff = 12
  binsize = 6, bins = 16 6 6
  2 neighbor lists, perpetual/occasional/extra = 2 0 0
  (1) pair reax/c, perpetual
      attributes: half, newton off, ghost
      pair build: half/bin/newtoff/ghost
      stencil: half/ghost/bin/3d/newtoff
      bin: standard
  (2) fix qeq/reax, perpetual, copy from (1)
      attributes: half, newton off, ghost
      pair build: copy
      stencil: none
      bin: none
Per MPI rank memory allocation (min/avg/max) = 9.78 | 10.2 | 10.91 Mbytes
Step Temp TotEng 
       0          650   -1969.6316 
     100    3039.2847   -1978.9444 
     200    1854.7187   -2017.4417 
     300    2404.4829   -2046.7033 
     400    2214.6288   -2068.8657 
     500    1979.4148   -2089.6512 
     600    1338.0616   -2119.6069 
     700     932.6562   -2138.8065 
     800    1355.8719   -2154.6471 
     900    833.37114    -2167.765 
    1000    1161.1791   -2180.4724 
    1100    709.73201   -2193.1274 
    1200    882.16106   -2201.4936 
    1300    946.97581   -2212.5376 
    1400    861.87484    -2222.628 
    1500    747.96856   -2231.7145 
    1600    711.97802   -2238.7044 
    1700    538.23736   -2244.8687 
    1800    529.22475    -2249.692 
    1900    382.11529   -2254.6091 
    2000    461.97655   -2257.9693 
    2100    545.00714    -2262.939 
    2200    582.74523   -2268.1962 
    2300    472.13216   -2272.7119 
    2400    487.74998   -2276.7082 
    2500    287.70561    -2279.822 
    2600    422.24478   -2283.1943 
    2700    283.38295   -2285.8319 
    2800    299.35755   -2288.2674 
    2900    339.40449   -2290.1713 
    3000    340.08829   -2292.6464 
    3100    280.51112   -2294.4488 
    3200       328.86    -2296.585 
    3300     248.7211   -2298.3965 
    3400    330.29399   -2299.9128 
    3500    300.56613   -2301.3204 
    3600     330.4027   -2302.7281 
    3700    298.98592   -2304.2361 
    3800    248.47228   -2305.6683 
    3900    282.44268   -2306.6307 
    4000    259.86193   -2307.6314 
    4100    294.44207   -2308.6628 
    4200    200.25227   -2309.5896 
    4300    262.61438    -2310.424 
    4400    195.89679   -2310.8887 
    4500    233.87961   -2311.6234 
    4600    235.88368     -2312.04 
    4700    186.83909   -2312.3874 
    4800    213.13091   -2312.7928 
    4900    153.57443   -2313.0916 
    5000    248.61348   -2313.1593 
    5100     222.1976   -2313.0907 
    5200    229.43514   -2313.2082 
    5300    181.11698   -2313.1451 
    5400    184.01351   -2312.8853 
    5500    256.75674    -2312.457 
    5600    187.59079   -2312.0106 
    5700    252.94801   -2311.5214 
    5800     237.3781   -2310.9115 
    5900    251.30851   -2310.1283 
    6000    201.91981   -2309.3761 
    6100     229.6434   -2308.4648 
    6200     219.6267   -2307.6776 
    6300    236.82164   -2306.7268 
    6400     271.0791   -2305.6712 
    6500    222.26132   -2304.3821 
    6600    292.92796    -2303.522 
    6700     256.9324   -2302.1424 
    6800    300.99523    -2300.891 
    6900    279.46996   -2299.5686 
    7000    328.70294   -2298.2896 
    7100    322.85157   -2296.9575 
    7200    353.82156   -2295.6811 
    7300    390.69832   -2294.3653 
    7400    313.88925   -2293.2933 
    7500    340.52917    -2292.418 
    7600     335.4617   -2291.0239 
    7700    339.87739   -2290.1155 
    7800    371.50578   -2288.9616 
    7900    344.95797   -2288.3582 
    8000    211.23158    -2287.338 
    8100    400.69163   -2286.7276 
    8200    413.75977   -2285.9663 
    8300    411.82941   -2285.4147 
    8400    386.52275   -2285.0642 
    8500    309.92385   -2285.1514 
    8600     309.9875   -2284.9678 
    8700     389.6025   -2284.8176 
    8800    379.92047    -2285.142 
    8900    326.78793   -2285.5048 
    9000    460.55515   -2286.0764 
    9100    413.40443   -2286.9118 
    9200    344.53651    -2288.176 
    9300    350.54363   -2289.1759 
    9400    475.98138   -2290.3978 
    9500    383.23439   -2291.7536 
    9600    400.57232   -2293.2041 
    9700    345.68995   -2294.4556 
    9800     380.2395   -2295.7668 
    9900    359.34901   -2296.9305 
   10000     263.7218   -2298.1786 
   10100    314.08376   -2299.3549 
   10200    278.20243   -2300.3773 
   10300    343.94004    -2301.802 
   10400    239.21396   -2303.0708 
   10500    259.26178   -2304.0897 
   10600    219.57301   -2304.8012 
   10700    228.50389   -2305.5541 
   10800    268.18654   -2306.0687 
   10900    266.19094   -2306.5522 
   11000    286.74858   -2307.1469 
   11100    273.61282   -2307.7597 
   11200    302.23266   -2308.3788 
   11300    240.53941   -2308.8422 
   11400    333.31777   -2309.2959 
   11500    239.73255   -2309.8786 
   11600    217.57324   -2310.2634 
   11700    269.74359   -2310.7299 
   11800    284.88683   -2310.9618 
   11900    259.71721   -2311.2289 
   12000    201.41888   -2311.1721 
   12100    319.16699   -2311.2983 
   12200    241.31474   -2311.4362 
   12300     264.9373   -2311.3045 
   12400    196.48774   -2311.1602 
   12500    198.15009   -2311.1169 
   12600    279.71796   -2310.9193 
   12700    245.60875    -2310.624 
   12800    195.91341   -2310.3717 
   12900    235.22087   -2310.0584 
   13000    267.46145   -2309.3219 
   13100    202.20463   -2308.6118 
   13200    279.44332   -2308.1694 
   13300      220.831   -2307.6647 
   13400    279.43663   -2306.6644 
   13500    296.38821   -2305.8612 
   13600    238.45809   -2304.9096 
   13700    244.15622   -2304.1319 
   13800    244.45872   -2303.2681 
   13900    256.37777   -2302.3923 
   14000     301.0873   -2301.2427 
   14100    351.37019   -2300.0228 
   14200    242.41651   -2298.9546 
   14300    295.81052   -2298.1132 
   14400    295.80143   -2297.2625 
   14500    354.79328   -2296.1594 
   14600    338.06446   -2295.3493 
   14700     339.4972   -2294.4909 
   14800    396.15157   -2293.8243 
   14900    396.60844   -2293.0318 
   15000     401.3016   -2292.2464 
   15100    298.55876   -2291.9249 
   15200    356.92744   -2291.4603 
   15300    290.02464   -2291.1972 
   15400    301.22263   -2291.1726 
   15500    389.05677   -2291.0886 
   15600    327.21954    -2291.203 
   15700    414.40591    -2291.314 
   15800      382.659   -2291.6717 
   15900    350.93282   -2292.0137 
   16000    309.14737   -2292.4607 
   16100    280.05611   -2293.0294 
   16200    383.32071   -2293.3606 
   16300    344.62939   -2294.0033 
   16400    345.24865     -2294.76 
   16500    326.50565   -2295.6423 
   16600    284.08965   -2296.2268 
   16700    248.37574   -2297.0445 
   16800    316.25748   -2297.6477 
   16900    333.68616   -2298.4891 
   17000    363.25875   -2298.9623 
   17100    379.39709   -2299.8358 
   17200    284.38398   -2300.7592 
   17300    333.38988   -2301.5033 
   17400    266.31179   -2302.0052 
   17500    295.91363   -2302.6269 
   17600    239.77674   -2303.2236 
   17700    274.34175   -2303.5593 
   17800     246.4768   -2304.2026 
   17900    238.57505   -2304.6305 
   18000    301.12112   -2305.1466 
   18100    254.01278   -2305.6191 
   18200    270.93166   -2306.1718 
   18300    252.40817   -2306.6257 
   18400    288.61772   -2306.9595 
   18500    309.89112    -2307.337 
   18600    259.25113   -2307.7444 
   18700    262.24454   -2307.7599 
   18800    277.02328   -2307.8574 
   18900    246.75322   -2308.0213 
   19000     244.1885   -2308.0689 
   19100    263.00234   -2308.0016 
   19200    272.60721   -2307.9144 
   19300     268.9926   -2307.9247 
   19400    313.87536   -2307.6165 
   19500    270.37113   -2307.4457 
   19600    282.81221   -2307.1025 
   19700    216.51784   -2306.8427 
   19800    260.19759    -2306.317 
   19900    285.28266   -2305.9257 
   20000    316.73954   -2305.3793 
   20100    252.09324   -2304.7588 
   20200    202.48565   -2304.2804 
   20300    250.12279    -2303.864 
   20400     233.5616   -2303.2684 
   20500    293.25931   -2302.6789 
   20600    295.43563   -2302.0211 
   20700    354.35237   -2301.4908 
   20800    295.15596   -2300.7669 
   20900     319.8087    -2300.274 
   21000    396.83066    -2299.698 
   21100    361.30429   -2299.1432 
   21200    391.81479   -2298.6896 
   21300    355.72236   -2298.2894 
   21400    369.60316   -2298.0154 
   21500    349.99984   -2297.7315 
   21600    343.50256   -2297.4874 
   21700    318.36399   -2297.3383 
   21800    373.94923   -2297.4559 
   21900    319.66363   -2297.5227 
   22000    275.51575   -2297.4678 
   22100    338.01184   -2297.4603 
   22200    339.29087   -2297.5076 
   22300    330.18764   -2297.7211 
   22400    325.16206   -2298.0279 
   22500    335.92628   -2298.3344 
   22600    315.55085   -2298.7139 
   22700    278.54887    -2298.892 
   22800    276.72286   -2299.2188 
   22900     238.3108   -2299.6864 
   23000    291.51768   -2300.1269 
   23100    264.69708   -2300.6635 
   23200    288.22209   -2301.0184 
   23300    317.86795   -2301.4266 
   23400    284.83467   -2301.8572 
   23500    318.95481   -2302.3994 
   23600    293.71867   -2302.8068 
   23700    270.08818   -2303.2011 
   23800    235.09438   -2303.5246 
   23900     221.5371   -2303.9715 
   24000    265.18861   -2304.1909 
   24100      216.756   -2304.5298 
   24200    184.33406    -2304.752 
   24300    284.26537    -2304.737 
   24400    257.44329   -2304.4749 
   24500    261.75953   -2304.6083 
   24600    287.89269   -2304.5984 
   24700    257.18986   -2304.4726 
   24800    345.83568   -2304.4845 
   24900    330.52709   -2304.4325 
   25000    276.97522   -2304.1922 
   25100    301.47378   -2303.8087 
   25200    299.13801   -2303.4245 
   25300    312.64253   -2303.0633 
   25400    271.13325   -2302.7693 
   25500    266.04977   -2302.2542 
   25600    276.66317   -2301.9234 
   25700    304.64863   -2301.3106 
   25800    303.89086   -2300.8673 
   25900    274.04845   -2300.2591 
   26000    262.50919    -2299.825 
   26100    272.43182   -2298.9552 
   26200    262.78751    -2298.476 
   26300     323.0186   -2297.8705 
   26400    286.47995   -2297.4127 
   26500    304.51241   -2296.8522 
   26600    342.68343   -2296.2955 
   26700    353.25629   -2295.6307 
   26800    403.53635    -2295.136 
   26900     400.0184   -2294.8744 
   27000    378.69057   -2294.7679 
   27100    419.92763   -2294.7604 
   27200    446.43305   -2295.0505 
   27300    307.94828   -2295.3245 
   27400    329.02021   -2295.4798 
   27500    314.14602   -2296.0241 
   27600    338.12981   -2296.4527 
   27700     344.6376   -2296.8451 
   27800    315.62714   -2297.5045 
   27900     392.3494   -2298.1444 
   28000    359.15478   -2298.8479 
   28100    358.95389   -2299.7522 
   28200    363.05606   -2300.6557 
   28300    335.92216   -2301.4059 
   28400     324.5952    -2302.158 
   28500    320.27237   -2302.9376 
   28600    278.00518   -2303.8779 
   28700    257.38712   -2304.1917 
   28800    238.17935    -2304.849 
   28900    283.09694   -2305.2186 
   29000    303.07453   -2305.6099 
   29100     302.2884   -2305.8771 
   29200    307.76673   -2306.3474 
   29300    260.48489   -2306.6228 
   29400    250.35637   -2306.7473 
   29500    259.57884    -2307.021 
   29600    221.16846   -2307.0594 
   29700    253.15087   -2307.1392 
   29800    304.17598   -2307.0295 
   29900    269.19208   -2306.9847 
   30000    304.06384    -2306.949 
   30100    300.70648   -2306.8085 
   30200     265.1094   -2306.8621 
   30300    238.29796   -2306.5319 
   30400    250.00909   -2306.3622 
   30500    250.31426   -2306.0672 
   30600    257.19481   -2305.6659 
   30700    263.38112     -2305.22 
   30800    271.87434    -2304.637 
   30900    343.19359   -2304.1032 
   31000     292.6938    -2303.576 
   31100    251.12904   -2302.8983 
   31200    245.08005   -2302.3448 
   31300    316.29195   -2301.6433 
   31400    316.38846   -2300.9612 
   31500    301.51814   -2300.4518 
   31600    304.57576   -2300.0067 
   31700    318.05986   -2299.3932 
   31800    337.53194   -2298.9656 
   31900    253.08379   -2298.6654 
   32000    326.45459   -2298.4308 
   32100    311.58515   -2298.2142 
   32200    369.20683   -2298.2265 
   32300    360.29843   -2298.1953 
   32400    356.23784   -2298.3771 
   32500    325.59739   -2298.5151 
   32600    258.48499   -2298.5837 
   32700    283.76518    -2298.622 
   32800    265.55981   -2298.7868 
   32900    264.06725   -2298.7447 
   33000    331.46929   -2298.6991 
   33100    390.03161   -2298.8976 
   33200    347.65658    -2299.005 
   33300    341.39746   -2299.1304 
   33400     338.4741   -2299.2654 
   33500    270.41052   -2299.6401 
   33600    287.40592   -2299.7015 
   33700    276.25989    -2299.848 
   33800    284.33283   -2300.2256 
   33900    400.31463   -2300.4492 
   34000    362.27622   -2300.4865 
   34100    371.95147   -2300.8149 
   34200    352.11191   -2301.3203 
   34300    349.90948   -2301.5755 
   34400    311.50507   -2302.0564 
   34500    292.02019   -2302.6274 
   34600    249.45589   -2303.1411 
   34700     216.5485   -2303.6599 
   34800    371.00784   -2304.3085 
   34900    320.58603   -2304.9098 
   35000    320.01374   -2305.5583 
   35100    295.93396   -2306.1355 
   35200    262.29863   -2306.8513 
   35300    225.82978   -2307.2907 
   35400    220.72491   -2307.6765 
   35500    198.02169   -2308.4159 
   35600    224.68299    -2308.689 
   35700    302.78916   -2308.9333 
   35800    281.89597    -2309.302 
   35900    222.69506   -2309.6066 
   36000    167.91088   -2309.7079 
   36100    213.50978   -2309.6127 
   36200    276.71455   -2309.5799 
   36300    200.34706   -2309.4849 
   36400    215.42359   -2309.3847 
   36500    208.87714    -2309.268 
   36600    272.13687    -2308.911 
   36700    231.13042   -2308.2316 
   36800    205.84228   -2307.5695 
   36900     276.7194   -2306.5355 
   37000    315.75992   -2305.2093 
   37100    321.88604   -2303.6969 
   37200    271.83414   -2301.8641 
   37300    241.85844    -2300.297 
   37400    293.72998   -2299.2673 
   37500    307.58159   -2298.4363 
   37600    381.21083   -2297.4559 
   37700    316.82155   -2296.8519 
   37800    389.35873   -2296.3837 
   37900    383.11368   -2295.9857 
   38000      299.388   -2295.6532 
   38100    256.94777   -2295.4061 
   38200    272.36268   -2295.1624 
   38300    328.67328    -2295.035 
   38400    361.88157    -2295.119 
   38500    361.00176   -2294.9844 
   38600    391.44457   -2294.9382 
   38700    371.52279   -2295.0947 
   38800    362.95373   -2295.2325 
   38900    308.30889   -2295.5183 
   39000    293.19441   -2295.7997 
   39100    323.04786     -2296.16 
   39200    302.29716   -2296.5519 
   39300    280.05768   -2297.0637 
   39400    342.86197   -2297.7579 
   39500    405.84169   -2298.5652 
   39600    333.57014   -2299.1818 
   39700    299.11078   -2299.7856 
   39800    362.20607   -2300.4682 
   39900    362.69029   -2301.0849 
   40000    341.39385   -2301.7834 
   40100    244.62465   -2302.4904 
   40200    224.22976   -2303.1361 
   40300    292.48099    -2303.682 
   40400    274.94549   -2304.1901 
   40500    240.64748   -2304.6006 
   40600    322.56576   -2304.9946 
   40700    310.66863   -2305.1602 
   40800    306.37143     -2305.75 
   40900    222.65198   -2305.9744 
   41000    179.19924   -2306.0389 
   41100    268.49501   -2306.2438 
   41200    241.77713   -2306.3011 
   41300    297.73262   -2306.1409 
   41400    316.15542   -2306.0547 
   41500    296.46176   -2306.1518 
   41600     245.8498   -2306.0153 
   41700    226.51927   -2305.7644 
   41800    305.31534   -2305.6152 
   41900     290.3895   -2305.2521 
   42000    302.41402   -2305.1361 
   42100    290.09505   -2304.8536 
   42200    286.63818   -2304.6275 
   42300    242.36735   -2303.9782 
   42400    206.35475   -2303.5502 
   42500    284.59283   -2302.7434 
   42600     317.4798   -2301.5505 
   42700     360.2103   -2300.0394 
   42800    320.69529   -2298.5004 
   42900    274.32185   -2297.1236 
   43000    330.60315   -2295.6875 
   43100     331.1807   -2294.3873 
   43200     336.3404    -2293.406 
   43300    306.57435   -2292.7736 
   43400    323.62847   -2292.1652 
   43500    357.52456   -2291.4559 
   43600    388.82534   -2291.0507 
   43700    388.29643   -2290.9045 
   43800    326.28521   -2290.9237 
   43900    379.83184   -2291.1074 
   44000    381.90818    -2291.352 
   44100    420.25748   -2291.7317 
   44200    355.14307   -2292.2606 
   44300    305.69409   -2293.0108 
   44400    309.39266   -2293.7141 
   44500    399.47351   -2294.3787 
   44600    412.63531   -2294.9164 
   44700    335.71369    -2295.895 
   44800    341.63452   -2296.4804 
   44900    305.72034   -2297.3026 
   45000    352.83116   -2298.0252 
   45100    342.27826   -2299.1227 
   45200    336.42107   -2299.7654 
   45300    298.70211   -2300.3745 
   45400    348.68548   -2301.0249 
   45500    365.71691   -2301.6932 
   45600    283.91134    -2302.359 
   45700    337.33885   -2302.7487 
   45800    297.72584   -2303.3951 
   45900    309.70278   -2303.7076 
   46000    274.57241   -2304.2206 
   46100    245.64009   -2304.6344 
   46200    281.07031   -2304.9168 
   46300     259.5116   -2305.0212 
   46400    305.25625   -2305.4895 
   46500    231.96714   -2305.6963 
   46600    257.70964   -2305.7699 
   46700     302.9914    -2305.676 
   46800    299.69535   -2305.9169 
   46900    280.21065   -2305.8866 
   47000     251.6317   -2305.8191 
   47100    279.54068   -2305.8887 
   47200    282.82863   -2305.5166 
   47300    273.96364    -2305.286 
   47400    279.51149   -2305.0872 
   47500    237.52275   -2304.9486 
   47600    248.14754   -2304.5512 
   47700    286.34715   -2303.9756 
   47800    315.12342   -2303.4476 
   47900    246.09218   -2302.8105 
   48000    241.87535   -2301.9432 
   48100    304.54671   -2301.2327 
   48200    302.27805   -2300.0095 
   48300    283.39799    -2298.961 
   48400    304.16939   -2297.9179 
   48500    307.90629   -2297.1264 
   48600    364.53017   -2296.2325 
   48700    417.83021   -2295.3265 
   48800     247.8513   -2294.7304 
   48900    341.81405   -2294.1892 
   49000    399.56152   -2293.6816 
   49100    362.08409   -2293.0646 
   49200     308.4175   -2292.8337 
   49300    319.61756   -2292.4984 
   49400    362.51831   -2292.5082 
   49500    497.91007    -2292.612 
   49600    391.06617   -2292.9451 
   49700     338.2237   -2293.4328 
   49800    386.68961   -2293.7784 
   49900    390.24485     -2294.07 
   50000    292.52414    -2294.603 
   50100    316.87948   -2294.9849 
   50200    317.97318   -2295.2971 
   50300    313.55202   -2295.5735 
   50400    360.86662   -2296.0382 
   50500    341.74693   -2296.3896 
   50600    360.34956   -2296.7305 
   50700    305.97957   -2297.1772 
   50800    262.31389   -2297.5393 
   50900    300.16787   -2297.7111 
   51000    336.17823   -2298.3146 
   51100    338.06464   -2298.8141 
   51200    328.64019   -2298.9704 
   51300    319.41987   -2299.4113 
   51400    345.03202   -2299.9944 
   51500    237.88151   -2300.3899 
   51600    239.98191   -2300.7229 
   51700    281.44621   -2301.0078 
   51800    293.58209   -2301.3298 
   51900    307.64513   -2301.5527 
   52000    234.57482   -2301.9603 
   52100    267.31254   -2302.0755 
   52200    264.24104   -2302.2491 
   52300    284.77288   -2302.4033 
   52400    278.88761    -2302.544 
   52500    281.25331   -2302.6675 
   52600    291.85996   -2302.6022 
   52700     341.3736    -2302.571 
   52800    339.42682   -2302.6984 
   52900    237.31291   -2302.9145 
   53000    256.87025   -2302.8702 
   53100    286.35537   -2302.8863 
   53200    295.47764   -2303.0094 
   53300    264.66482   -2302.8183 
   53400    246.52562   -2302.7883 
   53500    262.84897   -2302.7068 
   53600    314.44418   -2302.6447 
   53700    284.94972   -2302.3156 
   53800     255.4832   -2301.9386 
   53900    353.75877   -2301.4415 
   54000    318.12184   -2300.5952 
   54100    357.64628   -2299.8076 
   54200    328.85817   -2299.1853 
   54300    385.12273   -2298.3803 
   54400    330.60664    -2297.652 
   54500    329.54467   -2296.9619 
   54600    369.67632   -2296.3131 
   54700     351.5026   -2295.7496 
   54800    273.21256   -2295.2985 
   54900    336.21464   -2294.6734 
   55000    335.61808     -2294.12 
   55100    426.77291   -2293.8693 
   55200    347.84737   -2293.7214 
   55300    322.58686   -2293.6668 
   55400    360.31219   -2293.7052 
   55500    346.68151   -2293.6454 
   55600    329.42894   -2293.7578 
   55700    322.12542   -2293.9675 
   55800     410.4845   -2294.2493 
   55900    349.40652   -2294.6093 
   56000    372.97751   -2295.3032 
   56100    336.49513    -2295.979 
   56200    298.28376   -2296.6386 
   56300    382.24585   -2297.6003 
   56400    309.58229   -2298.9192 
   56500    272.78875   -2299.9511 
   56600    301.35789   -2300.6274 
   56700    310.50471   -2301.5252 
   56800    326.60231   -2302.3934 
   56900    368.36637   -2303.0201 
   57000    291.69134   -2303.8676 
   57100    257.45172   -2304.6237 
   57200    270.56658   -2304.9641 
   57300    294.15618   -2305.4394 
   57400    272.56729   -2305.9885 
   57500    272.79312   -2306.3342 
   57600    296.95768    -2306.503 
   57700     325.5201   -2306.7915 
   57800    320.44196   -2306.8656 
   57900    330.49998   -2306.8407 
   58000    254.86509    -2306.704 
   58100    271.12335   -2306.9571 
   58200     278.0073   -2306.9612 
   58300    280.17342   -2306.9594 
   58400    281.67983   -2306.9703 
   58500    314.00026   -2306.9775 
   58600     312.3192   -2306.9088 
   58700    292.98393   -2306.6982 
   58800    301.65465   -2306.4272 
   58900    239.32232   -2306.1446 
   59000    278.27506   -2305.8291 
   59100    298.89671   -2305.6364 
   59200    279.28023    -2305.464 
   59300    294.59143   -2305.1039 
   59400    283.42811   -2304.8637 
   59500    353.41775   -2304.3957 
   59600    292.75016   -2304.0231 
   59700     347.8041   -2303.8219 
   59800    283.75383   -2303.5111 
   59900    297.81937   -2302.9216 
   60000    335.93815   -2302.3928 
   60100     298.5469    -2301.902 
   60200    284.29299   -2301.0769 
   60300    256.76116   -2300.5412 
   60400    330.31952   -2299.6724 
   60500    409.91297   -2298.4002 
   60600    379.61787   -2297.0711 
   60700    256.92108   -2296.0248 
   60800    363.20406   -2294.8418 
   60900    355.78446   -2293.5348 
   61000    346.77491   -2291.9313 
   61100    398.55652   -2290.3238 
   61200    278.66936   -2289.3502 
   61300    395.26731   -2288.5321 
   61400    409.94889   -2288.3541 
   61500    443.84111   -2287.7664 
   61600    398.28505   -2287.6942 
   61700    385.87784   -2287.6567 
   61800    352.89348   -2287.6972 
   61900    414.43163   -2287.8565 
   62000    412.15427   -2288.1894 
   62100    362.34579   -2288.7361 
   62200    339.79856   -2288.8486 
   62300    390.99186   -2289.4369 
   62400    311.79657   -2289.8208 
   62500    375.21198   -2290.5032 
   62600    336.04096   -2291.0006 
   62700    348.53288   -2291.5964 
   62800    340.94564   -2291.9986 
   62900    390.55484   -2292.3393 
   63000    300.02658   -2292.9322 
   63100    355.90745   -2293.4277 
   63200    415.63772   -2294.1512 
   63300    381.99378   -2294.6633 
   63400     361.2307   -2295.3361 
   63500    343.15203   -2295.8997 
   63600    350.65514    -2296.505 
   63700    279.21278   -2296.9771 
   63800    293.73578   -2297.5918 
   63900    289.30728   -2297.9022 
   64000    260.38864   -2298.1799 
   64100    411.15627   -2298.3826 
   64200    370.85005   -2298.5446 
   64300    381.46162   -2298.9613 
   64400    270.53397   -2299.2635 
   64500     276.0692   -2299.6237 
   64600    322.36906    -2299.936 
   64700    305.21384   -2300.2554 
   64800     295.6089   -2300.8411 
   64900    262.12419   -2301.1988 
   65000     286.1367    -2301.396 
   65100    360.26441   -2301.5904 
   65200    268.87591   -2301.5991 
   65300    302.31839   -2301.9082 
   65400    278.27341   -2302.1107 
   65500    301.88799   -2302.1665 
   65600    286.43284   -2302.3906 
   65700    293.94023   -2302.3568 
   65800    251.17121   -2302.4269 
   65900    328.01263   -2302.6623 
   66000    253.54563    -2302.799 
   66100    247.30701   -2302.8068 
   66200    340.38535   -2302.7583 
   66300    239.13145   -2303.0458 
   66400    307.19278   -2303.1996 
   66500    264.53269   -2303.2689 
   66600    304.89282   -2303.2645 
   66700    244.86601   -2303.4898 
   66800    321.61723   -2303.5058 
   66900     234.1137    -2303.911 
   67000    335.28603    -2304.018 
   67100     347.7941   -2304.2533 
   67200     236.2752   -2304.3658 
   67300     339.6868    -2304.334 
   67400    271.71828   -2304.5224 
   67500    344.55435   -2304.7117 
   67600    272.62889   -2304.8249 
   67700    270.25458   -2304.9165 
   67800    317.92323   -2305.1482 
   67900    273.71652   -2305.2102 
   68000    259.71617   -2305.3501 
   68100    276.67839   -2305.3803 
   68200     309.1598   -2305.3037 
   68300    297.82493   -2305.4197 
   68400    245.71013   -2305.5431 
   68500    231.54719   -2305.4078 
   68600    259.84807   -2305.4952 
   68700    279.96557   -2305.5306 
   68800    241.72066   -2305.4851 
   68900    308.92485   -2305.4762 
   69000     236.2365   -2305.2959 
   69100    294.62519   -2305.2473 
   69200    285.20802   -2305.2628 
   69300    260.10954   -2305.0272 
   69400    242.30393   -2304.8599 
   69500    277.82656   -2304.5976 
   69600    278.34865   -2304.2583 
   69700    327.13667   -2303.9939 
   69800    284.14173   -2303.6669 
   69900    300.38178   -2303.2623 
   70000    333.24939   -2302.6985 
Loop time of 25.8947 on 8 procs for 70000 steps with 24 atoms

Performance: 23.356 ns/day, 1.028 hours/ns, 2703.259 timesteps/s
91.5% CPU use with 8 MPI tasks x no OpenMP threads

MPI task timing breakdown:
Section |  min time  |  avg time  |  max time  |%varavg| %total
---------------------------------------------------------------
Pair    | 0.37816    | 3.0086     | 8.4358     | 167.9 | 11.62
Bond    | 0.002365   | 0.0024981  | 0.002659   |   0.2 |  0.01
Neigh   | 0.000261   | 0.00089075 | 0.001722   |   0.0 |  0.00
Comm    | 0.011048   | 2.8538     | 6.7944     | 176.6 | 11.02
Output  | 0.10476    | 0.11179    | 0.1266     |   1.9 |  0.43
Modify  | 11.258     | 17.562     | 23.089     | 132.0 | 67.82
Other   |            | 2.355      |            |       |  9.09

Nlocal:    3 ave 11 max 0 min
Histogram: 4 0 1 1 0 1 0 0 0 1
Nghost:    9 ave 21 max 0 min
Histogram: 4 0 0 0 0 0 1 0 1 2
Neighs:    59.125 ave 198 max 0 min
Histogram: 4 0 0 1 1 0 1 0 0 1

Total # of neighbors = 473
Ave neighs/atom = 19.7083
Ave special neighs/atom = 0
Neighbor list builds = 77
Dangerous builds = 0
unfix TFIX
#unfix EFIX
#unfix kick
undump myDump
#undump VDump
write_data prod.dat

Please see the log.cite file for references relevant to this simulation

Total wall time: 0:00:26
